 Gaussian 16, Revision A.03,
 Gaussian 16:  AM64L-G16RevA.03 25-Dec-2016

 ----------------------------------------------------------------------
 #P LC-wHPBE/Def2SVP iop(3/107=0499400000, 3/108=0499400000) opt scf(ma
 xcyc=512)
 ----------------------------------------------------------------------

 -----
 H2 O1
 -----
 Symbolic Z-matrix:
 Charge =  1 Multiplicity = 2

 SCF Done:  E(ULC-wHPBE) =  -75.8736760259     A.U. after   12 cycles
 SCF Done:  E(ULC-wHPBE) =  -75.8743236049     A.U. after   11 cycles
 SCF Done:  E(ULC-wHPBE) =  -75.8743329906     A.U. after    8 cycles
 Optimization completed.
    -- Stationary point found.

                         Standard orientation:
 ---------------------------------------------------------------------
 Center     Atomic      Atomic             Coordinates (Angstroms)
 Number     Number       Type             X           Y           Z
 ---------------------------------------------------------------------
      1          8           0        0.000000    0.115030    0.000000
      2          1           0        0.823038   -0.460126    0.000000
      3          1           0       -0.823038   -0.460110    0.000000
 ---------------------------------------------------------------------

 The electronic state is 2-A".
 Alpha  occ. eigenvalues --  -19.58099  -1.66559  -1.14508  -1.02900  -1.00093
 Alpha virt. eigenvalues --   -0.17761  -0.10058   0.31146   0.31655   0.58591
 Alpha virt. eigenvalues --    0.63683   0.74207   0.79672   1.03835   1.21128
 Alpha virt. eigenvalues --    1.29260   1.46738   1.85920   1.86343   2.49884

  Beta  occ. eigenvalues --  -19.55524  -1.59048  -1.12371  -0.97102
  Beta virt. eigenvalues --   -0.45125  -0.16775  -0.09425   0.31145   0.32609
  Beta virt. eigenvalues --    0.65314   0.68057   0.75525   0.82932   1.05950
  Beta virt. eigenvalues --    1.22544   1.31380   1.46525   1.86585   1.91223

 Mulliken charges and spin densities:
               1          2
     1  O    0.323180   1.054926
     2  H    0.338414  -0.027463
     3  H    0.338406  -0.027463
 Sum of Mulliken charges =   1.00000   1.00000

 Dipole moment (field-independent basis, Debye):
    X=              0.0000    Y=             -2.2700    Z=              0.0000  Tot=              2.2700
 Quadrupole moment (field-independent basis, Debye-Ang):
   XX=             -1.5940   YY=             -4.4079   ZZ=             -4.7237
   XY=             -0.0000   XZ=              0.0000   YZ=             -0.0000

 Normal termination of Gaussian 16 at Wed Aug 10 17:03:36 2022.
